pySIMM System Object

6702 atoms
6732 bonds
12695 angles
16231 dihedrals
354 impropers

8 atom types
36 bond types
6 angle types
12 dihedral types
4 improper types

-116.273542 86.300432 xlo xhi
-92.621192 93.253502 ylo yhi
-113.389042 140.953784 zlo zhi

Masses

   1	28.086	# Si3
   2	1.008	# H_
   3	12.011	# C_3
   4	15.9994	# O_3
   5	12.011	# C_2
   6	14.0067	# N_2
   7	15.9994	# O_2
   8	12.011	# C_1

Pair Coeffs

   1	0.31	3.80413752646	# Si3
   2	0.0152	2.84642140446	# H_
   3	0.0951	3.47299047293	# C_3
   4	0.0957	3.03315377578	# O_3
   5	0.0951	3.47299047293	# C_2
   6	0.0774	3.2625601957	# N_2
   7	0.0957	3.03315377578	# O_2
   8	0.0951	3.47299047293	# C_1

Bond Coeffs

   1	350.0	1.09	# C_3,H_
   2	350.0	0.98	# O_3,H_
   3	350.0	1.53	# C_3,C_3
   4	350.0	1.587	# Si3,O_3
   5	350.0	1.697	# Si3,C_3
   6	350.0	1.257	# Si3,H_
   7	700.0	1.275	# N_2,C_2
   8	700.0	1.33	# C_2,C_2
   9	350.0	0.99	# C_2,H_
  10	350.0	1.375	# N_2,C_3
  11	700.0	1.22	# N_2,N_2
  12	350.0	1.32	# O_3,C_2
  13	350.0	0.935	# N_2,H_
  14	350.0	1.42	# O_3,C_3
  15	700.0	1.22	# O_2,C_2
  16	350.0	1.43	# C_2,C_3
  17	350.0	1.362	# C_1,C_3
  18	350.0	0.922	# C_1,H_
  19	1050.0	1.194	# C_1,C_1
  20	350.0	1.587	# Si3,O_3
  21	350.0	1.53	# C_3,C_3
  22	350.0	1.42	# O_3,C_3
  23	350.0	0.922	# C_1,H_
  24	350.0	0.99	# C_2,H_
  25	350.0	1.09	# C_3,H_
  26	700.0	1.275	# N_2,C_2
  27	350.0	1.43	# C_2,C_3
  28	350.0	1.32	# O_3,C_2
  29	350.0	0.935	# N_2,H_
  30	1050.0	1.194	# C_1,C_1
  31	700.0	1.33	# C_2,C_2
  32	350.0	1.375	# N_2,C_3
  33	700.0	1.22	# N_2,N_2
  34	350.0	1.362	# C_1,C_3
  35	700.0	1.22	# O_2,C_2
  36	350.0	1.697	# Si3,C_3

Angle Coeffs

   1	50.0	109.471	# X,C_3,X
   2	50.0	104.51	# X,O_3,X
   3	50.0	109.471	# X,Si3,X
   4	50.0	120.0	# X,C_2,X
   5	50.0	120.0	# X,N_2,X
   6	50.0	180.0	# X,C_1,X

Dihedral Coeffs

   1	0.111111	1	3	# X,Si3,C_3,X
   2	0.111111	1	3	# X,C_3,C_3,X
   3	0.111111	1	3	# X,Si3,O_3,X
   4	5.625000	-1	2	# X,N_2,C_2,X
   5	0.083333	-1	6	# N_2,N_2,C_3,X
   6	5.625000	-1	2	# X,N_2,N_2,X
   7	0.083333	-1	6	# C_2,N_2,C_3,X
   8	5.625000	-1	2	# X,C_2,C_2,X
   9	0.083333	-1	6	# C_2,C_2,C_3,X
  10	0.166667	-1	2	# X,O_3,C_2,X
  11	0.111111	1	3	# X,O_3,C_3,X
  12	0.083333	-1	6	# N_2,C_2,C_3,X

Improper Coeffs

   1	40.0	0.0	# N_2,X,X,X
   2	40.0	0.0	# C_2,X,X,X
   3	40.0	0.0	# N_2,X,X,X
   4	40.0	0.0	# C_2,X,X,X

Atoms

   1	1	3	-0.046670406565409224	-102.784042	71.299882	-10.5908
   2	1	1	0.17510574571478146	-104.10744199999999	72.23400199999999	-11.1414
   3	1	3	-0.046670406565409224	-105.460442	71.201712	-11.274
   4	1	4	-0.4364585646272619	-104.60564199999999	73.34785	-10.0887
   5	1	3	-0.035135882170696166	-103.779242	72.94384099999999	-12.6753
   6	1	3	-0.05646302732188698	-103.56804199999999	71.946152	-13.8506
   7	1	3	-0.06557155500389435	-103.383242	72.662212	-15.2073
   8	1	2	0.022115796887997072	-103.00554199999999	70.898552	-9.6019
   9	1	2	0.022115796887997072	-101.88294199999999	71.910822	-10.5399
  10	1	2	0.022115796887997072	-102.604242	70.46819199999999	-11.2719
  11	1	2	0.022115796887997072	-105.795342	70.909092	-10.2785
  12	1	2	0.022115796887997072	-105.20544199999999	70.30412199999999	-11.8372
  13	1	2	0.022115796887997072	-106.27354199999999	71.724702	-11.7792
  14	1	2	0.02571615832408119	-102.88224199999999	73.557205	-12.5896
  15	1	2	0.02571615832408119	-104.613042	73.607762	-12.9132
  16	1	2	0.026163404488163317	-104.42894199999999	71.28030199999999	-13.9469
  17	1	2	0.026163404488163317	-102.68144199999999	71.33509199999999	-13.6608
  18	1	2	0.023026521073167446	-103.158542	71.930222	-15.9857
  19	1	2	0.023026521073167446	-102.56284199999999	73.37722	-15.1541
  20	1	2	0.023026521073167446	-104.29534199999999	73.19514	-15.4833
  21	1	3	-0.022385714594520312	-103.046042	73.6638567	-7.92916
  22	1	1	0.31205628804113755	-103.567342	74.360125	-9.39727
  23	1	3	-0.022385714594520312	-104.500742	75.746792	-9.04963
  24	1	4	-0.41587194952684686	-102.333242	74.626385	-10.3883
  25	1	2	0.024499371946231092	-103.910642	73.327401	-7.35699
  26	1	2	0.024499371946231092	-102.49314199999999	74.390554	-7.336
  27	1	2	0.024499371946231092	-102.402042	72.81186299999999	-8.13114
  28	1	2	0.024499371946231092	-104.826342	76.21215199999999	-9.97925
  29	1	2	0.024499371946231092	-103.92334199999999	76.462952	-8.46689
  30	1	2	0.024499371946231092	-105.379842	75.457342	-8.47331
  31	1	3	-0.022345061346550475	-101.959942	77.144852	-11.1799
  32	1	1	0.313533270681672	-101.369542	75.888482	-10.1844
  33	1	3	-0.022345061346550475	-99.87884199999999	75.340262	-10.7881
  34	1	4	-0.4158437980567415	-101.225242	76.258202	-8.62669
  35	1	2	0.02450003954045234	-101.19734199999999	77.907822	-11.3225
  36	1	2	0.02450003954045234	-102.839942	77.598762	-10.7296
  37	1	2	0.02450003954045234	-102.230442	76.738292	-12.1541
  38	1	2	0.02450003954045234	-100.021042	74.931722	-11.7859
  39	1	2	0.02450003954045234	-99.497042	74.561264	-10.1345
  40	1	2	0.02450003954045234	-99.155042	76.14791199999999	-10.8387
  41	1	3	-0.022345058876549275	-99.64494199999999	77.195662	-6.77157
  42	1	1	0.3135336768423155	-100.49254199999999	77.61661199999999	-8.18693
  43	1	3	-0.022345058876549275	-101.73234199999999	78.71600199999999	-7.78009
  44	1	4	-0.41584379639241353	-99.476942	78.117882	-9.3326
  45	1	2	0.02450003954960249	-100.285842	76.598472	-6.12248
  46	1	2	0.02450003954960249	-99.34794199999999	78.092942	-6.23366
  47	1	2	0.02450003954960249	-98.762142	76.61353199999999	-7.03546
  48	1	2	0.02450003954960249	-102.41004199999999	78.24998199999999	-7.06449
  49	1	2	0.02450003954960249	-102.29444199999999	78.98839199999999	-8.67175
  50	1	2	0.02450003954960249	-101.309642	79.611352	-7.32666
  51	1	3	-0.02234505887654117	-99.914942	80.67082199999999	-10.04
  52	1	1	0.3135336768478753	-98.822642	79.57955199999999	-9.30489
  53	1	3	-0.02234505887654117	-97.45764199999999	79.41421199999999	-10.3111
  54	1	4	-0.4158437963924082	-98.34534199999999	79.904412	-7.80741
  55	1	2	0.024500039549602497	-100.253642	80.256012	-10.9891
  56	1	2	0.024500039549602497	-99.433042	81.62418199999999	-10.2389
  57	1	2	0.024500039549602497	-100.780042	80.838692	-9.40503
  58	1	2	0.024500039549602497	-97.76144199999999	78.991502	-11.2684
  59	1	2	0.024500039549602497	-96.736042	78.746522	-9.84007
  60	1	2	0.024500039549602497	-96.99224199999999	80.380032	-10.4914
  61	1	3	-0.02234505887654117	-99.37964199999999	82.188082	-6.83586
  62	1	1	0.31353367684787536	-97.956842	81.38045199999999	-7.3117
  63	1	3	-0.02234505887654117	-97.078042	82.391162	-8.37464
  64	1	4	-0.4158437963924082	-97.140242	81.266562	-5.94081
  65	1	2	0.024500039549602497	-99.926142	81.568422	-6.12446
  66	1	2	0.024500039549602497	-100.013342	82.391842	-7.6958
  67	1	2	0.024500039549602497	-99.122242	83.13300199999999	-6.35635
  68	1	2	0.024500039549602497	-96.230142	81.86271199999999	-8.7991
  69	1	2	0.024500039549602497	-96.707242	83.253502	-7.81961
  70	1	2	0.024500039549602497	-97.711542	82.75026199999999	-9.18154
  71	1	3	-0.02234505887654117	-94.64684199999999	80.484242	-6.85986
  72	1	1	0.31353367684787536	-95.92244199999999	80.23046199999999	-5.7597
  73	1	3	-0.02234505887654117	-96.37414199999999	78.588352	-5.80917
  74	1	4	-0.4158437963924082	-95.237742	80.454442	-4.33042
  75	1	2	0.024500039549602497	-93.76704199999999	79.930532	-6.52999
  76	1	2	0.024500039549602497	-94.40274199999999	81.54596199999999	-6.89549
  77	1	2	0.024500039549602497	-94.926542	80.13341199999999	-7.85206
  78	1	2	0.024500039549602497	-96.65264199999999	78.293572	-6.81891
  79	1	2	0.024500039549602497	-97.207842	78.416812	-5.13185
  80	1	2	0.024500039549602497	-95.52954199999999	77.976272	-5.49409
  81	1	3	-0.02234505887654117	-97.64504199999999	80.40906199999999	-2.86278
  82	1	1	0.31353367684787536	-96.07784199999999	81.05348199999999	-3.0982
  83	1	3	-0.02234505887654117	-96.178542	82.747462	-3.25914
  84	1	4	-0.4158437963924082	-95.261742	80.84315199999999	-1.73761
  85	1	2	0.024500039549602497	-98.29834199999999	80.663292	-3.69578
  86	1	2	0.024500039549602497	-98.070342	80.826172	-1.94951
  87	1	2	0.024500039549602497	-97.600642	79.326712	-2.76575
  88	1	2	0.024500039549602497	-96.58424199999999	83.179402	-2.34393
  89	1	2	0.024500039549602497	-96.82314199999999	83.020072	-4.09279
  90	1	2	0.024500039549602497	-95.18094199999999	83.15153199999999	-3.43115
  91	1	3	-0.02234505887654117	-92.91224199999999	79.617522	-2.51734
  92	1	1	0.31353367684787536	-94.316142	79.55864199999999	-1.54352
  93	1	3	-0.02234505887654117	-95.125142	78.083902	-1.82936
  94	1	4	-0.4158437963924082	-93.870542	79.469072	-0.00698178
  95	1	2	0.024500039549602497	-92.139242	78.98418199999999	-2.08257
  96	1	2	0.024500039549602497	-92.545142	80.640132	-2.58406
  97	1	2	0.024500039549602497	-93.126942	79.257302	-3.52262
  98	1	2	0.024500039549602497	-94.489342	77.251312	-1.52698
  99	1	2	0.024500039549602497	-95.36254199999999	77.97979199999999	-2.88626
 100	1	2	0.024500039549602497	-96.046742	78.056162	-1.25097
 101	1	3	-0.02234505887654117	-94.97804199999999	81.605682	1.28665
 102	1	1	0.31353367684787536	-93.54274199999999	80.796662	0.83957
 103	1	3	-0.02234505887654117	-92.52344199999999	81.92490199999999	0.0580041
 104	1	4	-0.4158437963924082	-92.90154199999999	80.378682	2.2503
 105	1	2	0.024500039549602497	-95.688842	80.89643199999999	1.70444
 106	1	2	0.024500039549602497	-95.431142	82.100972	0.430333
 107	1	2	0.024500039549602497	-94.749742	82.359072	2.04064
 108	1	2	0.024500039549602497	-93.05994199999999	82.412532	-0.756227
 109	1	2	0.024500039549602497	-91.644342	81.43067199999999	-0.347672
 110	1	2	0.024500039549602497	-92.205342	82.683972	0.77236
 111	1	3	-0.02234505887654117	-90.490442	79.374062	1.28112
 112	1	1	0.31353367684787536	-91.80594199999999	79.20284199999999	2.354
 113	1	3	-0.02234505887654117	-92.502742	77.661262	2.14111
 114	1	4	-0.4158437963924082	-91.194142	79.128012	3.83477
 115	1	2	0.024500039549602497	-90.817442	79.201962	0.256665
 116	1	2	0.024500039549602497	-89.719642	78.644702	1.52674
 117	1	2	0.024500039549602497	-90.069142	80.374562	1.36658
 118	1	2	0.024500039549602497	-91.764242	76.891092	2.35314
 119	1	2	0.024500039549602497	-92.85524199999999	77.52139199999999	1.12297
 120	1	2	0.024500039549602497	-93.33334199999999	77.546652	2.83241
 121	1	3	-0.02234505887654117	-92.73584199999999	80.882182	5.29991
 122	1	1	0.31353367684787536	-91.170242	80.41908199999999	4.7922
 123	1	3	-0.02234505887654117	-90.416242	81.765512	4.06252
 124	1	4	-0.4158437963924082	-90.230042	80.125192	6.06329
 125	1	2	0.024500039549602497	-93.359742	80.00214199999999	5.43188
 126	1	2	0.024500039549602497	-93.203842	81.52533199999999	4.55559
 127	1	2	0.024500039549602497	-92.67254199999999	81.428652	6.24093
 128	1	2	0.024500039549602497	-90.33734199999999	82.575052	4.78922
 129	1	2	0.024500039549602497	-90.99514199999999	82.11625199999999	3.20942
 130	1	2	0.024500039549602497	-89.415842	81.488952	3.73117
 131	1	3	-0.02234505887654117	-91.81074199999999	78.51968199999999	7.61725
 132	1	1	0.31353367684787536	-90.311442	78.711452	6.82533
 133	1	3	-0.02234505887654117	-89.13314199999999	78.784792	8.0627
 134	1	4	-0.4158437963924082	-90.15154199999999	77.44702199999999	5.84374
 135	1	2	0.024500039549602497	-92.043542	79.412022	8.19835
 136	1	2	0.024500039549602497	-91.76414199999999	77.660322	8.28461
 137	1	2	0.024500039549602497	-92.59974199999999	78.344792	6.89044
 138	1	2	0.024500039549602497	-89.358442	79.621192	8.72454
 139	1	2	0.024500039549602497	-88.142242	78.939252	7.64209
 140	1	2	0.024500039549602497	-89.13134199999999	77.865872	8.64556
 141	1	3	-0.02234505887654117	-87.872142	78.40426199999999	4.55536
 142	1	1	0.31353367684787536	-88.72464199999999	77.07264199999999	5.20533
 143	1	3	-0.02234505887654117	-89.02484199999999	76.027862	3.88957
 144	1	4	-0.4158437963924082	-87.750942	76.414062	6.29891
 145	1	2	0.024500039549602497	-87.580942	79.09728199999999	5.34142
 146	1	2	0.024500039549602497	-88.489542	78.928832	3.82965
 147	1	2	0.024500039549602497	-86.969842	78.048552	4.05779
 148	1	2	0.024500039549602497	-89.713342	75.23920199999999	4.18436
 149	1	2	0.024500039549602497	-88.090442	75.586692	3.54332
 150	1	2	0.024500039549602497	-89.473942	76.587312	3.07215
 151	1	3	-0.02234505887654117	-87.78024199999999	73.67027979999999	5.94142
 152	1	1	0.31353367684787536	-88.095142	74.992392	6.97189
 153	1	3	-0.02234505887654117	-89.69514199999999	74.84159199999999	7.53552
 154	1	4	-0.4158437963924082	-87.22134199999999	74.817692	8.30458
 155	1	2	0.024500039549602497	-86.928642	73.886879	5.30059
 156	1	2	0.024500039549602497	-88.644442	73.448256	5.31791
 157	1	2	0.024500039549602497	-87.562342	72.793061	6.54781
 158	1	2	0.024500039549602497	-89.78544199999999	73.91178199999999	8.09569
 159	1	2	0.024500039549602497	-90.39324199999999	74.820222	6.70177
 160	1	2	0.024500039549602497	-89.938142	75.67164199999999	8.19333
 161	1	3	-0.02234505887654117	-85.497542	76.906572	8.44837
 162	1	1	0.31353367684787536	-85.66434199999999	75.212052	8.34443
 163	1	3	-0.02234505887654117	-84.72044199999999	74.64771499999999	7.03629
 164	1	4	-0.4158437963924082	-85.00984199999999	74.67769799999999	9.71029
 165	1	2	0.024500039549602497	-84.474542	77.157022	8.73025
 166	1	2	0.024500039549602497	-86.18014199999999	77.29261199999999	9.20538
 167	1	2	0.024500039549602497	-85.718842	77.376982	7.49177
 168	1	2	0.024500039549602497	-83.665762	74.826022	7.24513
 169	1	2	0.024500039549602497	-84.989842	75.179592	6.12424
 170	1	2	0.024500039549602497	-84.875042	73.581239	6.8871
 171	1	3	-0.02234505887654117	-85.318542	71.94004199999999	9.2546
 172	1	1	0.31353367684787536	-85.439942	73.25644	10.3365
 173	1	3	-0.02234505887654117	-87.02514199999999	73.31333099999999	10.9636
 174	1	4	-0.4158437963924082	-84.53894199999999	72.921917	11.6262
 175	1	2	0.024500039549602497	-86.07054199999999	72.029052	8.47244
 176	1	2	0.024500039549602497	-85.48504199999999	71.00823199999999	9.79473
 177	1	2	0.024500039549602497	-84.331042	71.91363199999999	8.79804
 178	1	2	0.024500039549602497	-87.76534199999999	73.256869	10.1682
 179	1	2	0.024500039549602497	-87.163242	74.23733	11.5249
 180	1	2	0.024500039549602497	-87.17714199999999	72.465802	11.6276
 181	1	3	-0.02234505887654117	-82.933032	75.02793199999999	12.156
 182	1	1	0.31353367684787536	-83.001672	73.390811	11.6849
 183	1	3	-0.02234505887654117	-82.105772	73.16466899999999	10.2507
 184	1	4	-0.4158437963924082	-82.159432	72.623742	12.813
 185	1	2	0.024500039549602497	-83.526642	75.167082	13.0596
 186	1	2	0.024500039549602497	-83.320492	75.674582	11.3707
 187	1	2	0.024500039549602497	-81.899682	75.306832	12.3637
 188	1	2	0.024500039549602497	-82.516982	73.7569254	9.43526
 189	1	2	0.024500039549602497	-82.11638199999999	72.110912	9.97776
 190	1	2	0.024500039549602497	-81.07470199999999	73.475152	10.4202
 191	1	3	-0.02234505887654117	-83.48302199999999	70.165672	12.4408
 192	1	1	0.31353367684787536	-82.635302	71.23588199999999	13.4673
 193	1	3	-0.02234505887654117	-83.603392	71.58599199999999	14.8266
 194	1	4	-0.4158437963924082	-81.361002	70.36262199999999	13.9159
 195	1	2	0.024500039549602497	-82.970832	70.086012	11.4837
 196	1	2	0.024500039549602497	-84.50384199999999	70.506422	12.2823
 197	1	2	0.024500039549602497	-83.522792	69.179572	12.9044
 198	1	2	0.024500039549602497	-83.14119199999999	72.372942	15.4205
 199	1	2	0.024500039549602497	-83.715442	70.692352	15.4404
 200	1	2	0.024500039549602497	-84.586142	71.928772	14.5021
 201	1	3	-0.02234505887654117	-80.226772	72.116332	15.7559
 202	1	1	0.31353367684787536	-80.010562	71.068382	14.4261
 203	1	3	-0.02234505887654117	-79.227002	71.91886199999999	13.1688
 204	1	4	-0.4158437963924082	-78.925822	69.93400199999999	14.7502
 205	1	2	0.024500039549602497	-79.262012	72.324252	16.2193
 206	1	2	0.024500039549602497	-80.890142	71.659982	16.4876
 207	1	2	0.024500039549602497	-80.667822	73.055216	15.4216
 208	1	2	0.024500039549602497	-79.694752	72.88541099999999	12.9943
 209	1	2	0.024500039549602497	-79.26149199999999	71.32949199999999	12.2529
 210	1	2	0.024500039549602497	-78.184992	72.090132	13.4408
 211	1	3	-0.02234505887654117	-79.17397199999999	69.290292	17.4128
 212	1	1	0.31353367684787536	-79.172022	68.74094199999999	15.8003
 213	1	3	-0.02234505887654117	-80.588912	67.84704199999999	15.4865
 214	1	4	-0.4158437963924082	-77.972662	67.66926199999999	15.7256
 215	1	2	0.024500039549602497	-78.350482	69.98629199999999	17.5677
 216	1	2	0.024500039549602497	-79.05129199999999	68.439882	18.0836
 217	1	2	0.024500039549602497	-80.11379199999999	69.78500199999999	17.6438
 218	1	2	0.024500039549602497	-81.47124199999999	68.445872	15.7103
 219	1	2	0.024500039549602497	-80.601382	66.95365199999999	16.111
 220	1	2	0.024500039549602497	-80.607322	67.549002	14.4384
 221	1	3	-0.02234505887654117	-75.88121199999999	69.45276199999999	15.7677
 222	1	1	0.31353367684787536	-76.57385199999999	68.075392	15.0369
 223	1	3	-0.02234505887654117	-76.754142	68.30694199999999	13.3538
 224	1	4	-0.4158437963924082	-75.45226199999999	66.94586199999999	15.2492
 225	1	2	0.024500039549602497	-76.466442	70.345582	15.554
 226	1	2	0.024500039549602497	-74.871792	69.59674199999999	15.3876
 227	1	2	0.024500039549602497	-75.83648199999999	69.301722	16.8466
 228	1	2	0.024500039549602497	-77.07018199999999	69.324272	13.1319
 229	1	2	0.024500039549602497	-77.494762	67.611322	12.9633
 230	1	2	0.024500039549602497	-75.807502	68.125022	12.8563
 231	1	3	-0.02234505887654117	-76.31418199999999	65.05827199999999	16.927
 232	1	1	0.31353367684787536	-75.86541199999999	65.394972	15.319
 233	1	3	-0.02234505887654117	-77.08456199999999	64.904612	14.2266
 234	1	4	-0.4158437963924082	-74.62879	64.41473199999999	15.033
 235	1	2	0.024500039549602497	-77.25898199999999	65.543382	17.1684
 236	1	2	0.024500039549602497	-75.541992	65.42943199999999	17.6007
 237	1	2	0.024500039549602497	-76.412382	63.98213199999999	17.0649
 238	1	2	0.024500039549602497	-78.036892	65.37351199999999	14.4674
 239	1	2	0.024500039549602497	-77.20401199999999	63.823212	14.279
 240	1	2	0.024500039549602497	-76.79596199999999	65.17670199999999	13.2127
 241	1	3	-0.02234505887654117	-72.28799199999999	65.633462	15.4885
 242	1	1	0.31353367684787536	-73.287807	64.92799199999999	14.305
 243	1	3	-0.02234505887654117	-73.515407	66.018152	13.0142
 244	1	4	-0.4158437963924082	-72.435232	63.713542	13.6891
 245	1	2	0.024500039549602497	-72.796548	66.477402	15.9531
 246	1	2	0.024500039549602497	-71.36232199999999	65.97765199999999	15.0286
 247	1	2	0.024500039549602497	-72.055262	64.893142	16.2542
 248	1	2	0.024500039549602497	-74.340475	65.69241199999999	12.3837
 249	1	2	0.024500039549602497	-72.60538199999999	66.06602199999999	12.4181
 250	1	2	0.024500039549602497	-73.72371892999999	67.009512	13.4006
 251	1	3	-0.02234505887654117	-72.085702	61.29884199999999	12.5857
 252	1	1	0.31353367684787536	-73.22157399999999	62.383441999999995	13.2542
 253	1	3	-0.02234505887654117	-74.38987399999999	62.686541999999996	12.0488
 254	1	4	-0.4158437963924082	-73.99082299999999	61.734241999999995	14.5009
 255	1	2	0.024500039549602497	-71.282162	61.090042	13.2883
 256	1	2	0.024500039549602497	-71.652192	61.74314199999999	11.6957
 257	1	2	0.024500039549602497	-72.57676199999999	60.365041999999995	12.32
 258	1	2	0.024500039549602497	-75.20069199999999	63.28254199999999	12.4607
 259	1	2	0.024500039549602497	-74.802652	61.74484199999999	11.6879
 260	1	2	0.024500039549602497	-73.93252799999999	63.222041999999995	11.2178
 261	1	3	-0.02234505887654117	-73.156515	59.55174199999999	15.6141
 262	1	1	0.31353367684787536	-73.123162	61.24764199999999	15.7615
 263	1	3	-0.02234505887654117	-73.988945	61.769042	17.1355
 264	1	4	-0.4158437963924082	-71.616092	61.818842	15.7196
 265	1	2	0.024500039549602497	-73.117927	59.09414199999999	16.5964
 266	1	2	0.024500039549602497	-72.312362	59.213342	15.0152
 267	1	2	0.024500039549602497	-74.07483699999999	59.245341999999994	15.118
 268	1	2	0.024500039549602497	-73.6473432	61.23844199999999	18.0237
 269	1	2	0.024500039549602497	-75.051802	61.580141999999995	16.9959
 270	1	2	0.024500039549602497	-73.83594099999999	62.839341999999995	17.2737
 271	1	3	-0.02234505887654117	-69.16210199999999	62.322641999999995	16.3462
 272	1	1	0.31353367684787536	-70.593132	61.609441999999994	16.9351
 273	1	3	-0.02234505887654117	-70.26726199999999	59.953942	17.1968
 274	1	4	-0.4158437963924082	-71.207022	62.36724199999999	18.2194
 275	1	2	0.024500039549602497	-69.325362	63.390741999999996	16.2276
 276	1	2	0.024500039549602497	-68.907912	61.89254199999999	15.3767
 277	1	2	0.024500039549602497	-68.33549199999999	62.148841999999995	17.0347
 278	1	2	0.024500039549602497	-69.36505199999999	59.827341999999994	17.7913
 279	1	2	0.024500039549602497	-70.116902	59.45504199999999	16.2403
 280	1	2	0.024500039549602497	-71.100652	59.495141999999994	17.72
 281	1	3	-0.02234505887654117	-71.41935199999999	62.96014199999999	20.7671
 282	1	1	0.31353367684787536	-70.299042	62.685041999999996	19.5068
 283	1	3	-0.02234505887654117	-69.451832	64.14612199999999	19.2468
 284	1	4	-0.4158437963924082	-69.299212	61.447942	19.7337
 285	1	2	0.024500039549602497	-72.07856199999999	63.783902	20.4919
 286	1	2	0.024500039549602497	-70.90288199999999	63.220541999999995	21.6902
 287	1	2	0.024500039549602497	-72.02572199999999	62.073541999999996	20.9321
 288	1	2	0.024500039549602497	-69.11016199999999	64.562142	20.193
 289	1	2	0.024500039549602497	-70.114222	64.868482	18.7683
 290	1	2	0.024500039549602497	-68.585882	63.978761999999996	18.6111
 291	1	3	-0.02234505887654117	-67.71511199999999	62.421741999999995	21.7676
 292	1	1	0.31353367684787536	-68.635222	61.12284199999999	21.1544
 293	1	3	-0.02234505887654117	-67.526832	59.86984199999999	20.822
 294	1	4	-0.4158437963924082	-69.742212	60.767241999999996	22.2648
 295	1	2	0.024500039549602497	-68.370812	63.229141999999996	22.0878
 296	1	2	0.024500039549602497	-67.031922	62.78854199999999	21.0011
 297	1	2	0.024500039549602497	-67.137852	62.085241999999994	22.6293
 298	1	2	0.024500039549602497	-67.035302	59.530941999999996	21.7305
 299	1	2	0.024500039549602497	-66.773862	60.237441999999994	20.1282
 300	1	2	0.024500039549602497	-68.04082199999999	59.03404199999999	20.3564
 301	1	3	-0.02234505887654117	-71.20852199999999	58.987241999999995	20.6957
 302	1	1	0.31353367684787536	-70.521852	59.362241999999995	22.212
 303	1	3	-0.02234505887654117	-71.82422199999999	59.48674199999999	23.308
 304	1	4	-0.4158437963924082	-69.53912199999999	58.13484199999999	22.5231
 305	1	2	0.024500039549602497	-71.79650199999999	58.07344199999999	20.7817
 306	1	2	0.024500039549602497	-70.42114199999999	58.818242	19.9666
 307	1	2	0.024500039549602497	-71.85497199999999	59.79194199999999	20.3526
 308	1	2	0.024500039549602497	-72.551542	60.207542	22.9339
 309	1	2	0.024500039549602497	-71.46843199999999	59.832241999999994	24.2768
 310	1	2	0.024500039549602497	-72.30891199999999	58.51694199999999	23.4216
 311	1	3	-0.02234505887654117	-70.001212	57.220141999999996	25.0727
 312	1	1	0.31353367684787536	-68.892282	57.91954199999999	23.9777
 313	1	3	-0.02234505887654117	-68.237922	59.32874199999999	24.6881
 314	1	4	-0.4158437963924082	-67.63698199999999	56.932041999999996	23.8406
 315	1	2	0.024500039549602497	-70.70056199999999	56.57784199999999	24.5405
 316	1	2	0.024500039549602497	-70.562992	57.992442	25.5955
 317	1	2	0.024500039549602497	-69.45888199999999	56.62664199999999	25.8092
 318	1	2	0.024500039549602497	-67.48692199999999	59.764641999999995	24.0339
 319	1	2	0.024500039549602497	-67.763382	59.068541999999994	25.6344
 320	1	2	0.024500039549602497	-69.01884199999999	60.063542	24.8782
 321	1	3	-0.02234505887654117	-67.46618199999999	56.134642	21.1908
 322	1	1	0.31353367684787536	-67.665312	55.68494199999999	22.8238
 323	1	3	-0.02234505887654117	-69.06392199999999	54.718641999999996	22.9629
 324	1	4	-0.4158437963924082	-66.49412199999999	54.689541999999996	23.2649
 325	1	2	0.024500039549602497	-67.20240199999999	55.255742	20.6022
 326	1	2	0.024500039549602497	-66.673012	56.87504199999999	21.1077
 327	1	2	0.024500039549602497	-68.39128199999999	56.55204199999999	20.7966
 328	1	2	0.024500039549602497	-68.93636199999999	53.807641999999994	22.3778
 329	1	2	0.024500039549602497	-69.936442	55.254942	22.5913
 330	1	2	0.024500039549602497	-69.216242	54.447241999999996	24.0076
 331	1	3	-0.02234505887654117	-64.68229199999999	56.77144199999999	23.8346
 332	1	1	0.31353367684787536	-64.96063199999999	55.167641999999994	23.3183
 333	1	3	-0.02234505887654117	-64.205072	54.938641999999994	21.8088
 334	1	4	-0.4158437963924082	-64.177612	54.305842	24.4124
 335	1	2	0.024500039549602497	-65.105032	57.480841999999996	23.1245
 336	1	2	0.024500039549602497	-63.608442	56.945842	23.9102
 337	1	2	0.024500039549602497	-65.130962	56.92534199999999	24.8159
 338	1	2	0.024500039549602497	-64.59114199999999	54.04024199999999	21.3295
 339	1	2	0.024500039549602497	-63.128941999999995	54.83854199999999	21.9486
 340	1	2	0.024500039549602497	-64.397792	55.796141999999996	21.169
 341	1	3	-0.02234505887654117	-64.47335199999999	51.76754199999999	23.2845
 342	1	1	0.31353367684787536	-64.529572	52.763842	24.671
 343	1	3	-0.02234505887654117	-66.047342	52.57774199999999	25.4302
 344	1	4	-0.4158437963924082	-63.503941999999995	52.271542	25.7939
 345	1	2	0.024500039549602497	-63.56804199999999	51.961741999999994	22.7149
 346	1	2	0.024500039549602497	-65.33827199999999	51.964242	22.6511
 347	1	2	0.024500039549602497	-64.48785199999999	50.720642	23.587
 348	1	2	0.024500039549602497	-66.10595199999999	51.589141999999995	25.8865
 349	1	2	0.024500039549602497	-66.859122	52.670942	24.7112
 350	1	2	0.024500039549602497	-66.163072	53.334942	26.2056
 351	1	3	-0.02234505887654117	-61.25294199999999	53.278741999999994	24.2955
 352	1	1	0.31353367684787536	-61.91524199999999	52.33394199999999	25.5614
 353	1	3	-0.02234505887654117	-61.450942	50.719241999999994	25.2948
 354	1	4	-0.4158437963924082	-61.19134199999999	52.745042	26.9271
 355	1	2	0.024500039549602497	-60.170542	53.32344199999999	24.4206
 356	1	2	0.024500039549602497	-61.641541999999994	54.292142	24.3146
 357	1	2	0.024500039549602497	-61.469542	52.832842	23.3271
 358	1	2	0.024500039549602497	-61.903541999999995	50.34584199999999	24.3765
 359	1	2	0.024500039549602497	-61.77764199999999	50.101741999999994	26.1321
 360	1	2	0.024500039549602497	-60.368342	50.661241999999994	25.2125
 361	1	3	-0.02234505887654117	-63.079941999999996	53.59484199999999	28.664
 362	1	1	0.31353367684787536	-61.684242	54.018542	27.7747
 363	1	3	-0.02234505887654117	-62.06914199999999	55.451941999999995	26.9249
 364	1	4	-0.4158437963924082	-60.539941999999996	54.33604199999999	28.8598
 365	1	2	0.024500039549602497	-62.92684199999999	52.64664199999999	29.1756
 366	1	2	0.024500039549602497	-63.941402	53.497941999999995	28.0058
 367	1	2	0.024500039549602497	-63.295641999999994	54.372541999999996	29.3958
 368	1	2	0.024500039549602497	-62.149241999999994	56.275842	27.6341
 369	1	2	0.024500039549602497	-63.02444199999999	55.341842	26.4192
 370	1	2	0.024500039549602497	-61.305541999999996	55.692842	26.1915
 371	1	3	-0.02234505887654117	-58.239641999999996	53.10854199999999	28.0151
 372	1	1	0.31353367684787536	-59.019141999999995	54.578942	28.3788
 373	1	3	-0.02234505887654117	-58.293541999999995	55.29404199999999	29.7484
 374	1	4	-0.4158437963924082	-58.987041999999995	55.50594199999999	27.0729
 375	1	2	0.024500039549602497	-58.74554199999999	52.590641999999995	27.2056
 376	1	2	0.024500039549602497	-58.224242	52.47684199999999	28.8937
 377	1	2	0.024500039549602497	-57.219342	53.29794199999999	27.7031
 378	1	2	0.024500039549602497	-58.46344199999999	54.661142	30.6198
 379	1	2	0.024500039549602497	-58.74484199999999	56.269541999999994	29.9289
 380	1	2	0.024500039549602497	-57.221042	55.41054199999999	29.6048
 381	1	3	-0.02234505887654117	-57.805842	56.265941999999995	24.926
 382	1	1	0.31353367684787536	-57.683741999999995	56.330341999999995	26.6269
 383	1	3	-0.02234505887654117	-57.977641999999996	57.919442	27.1724
 384	1	4	-0.4158437963924082	-56.28984199999999	55.68744199999999	27.1458
 385	1	2	0.024500039549602497	-57.24564199999999	57.073041999999994	24.4616
 386	1	2	0.024500039549602497	-58.85064199999999	56.365742	24.6291
 387	1	2	0.024500039549602497	-57.428242	55.30694199999999	24.5709
 388	1	2	0.024500039549602497	-57.35224199999999	58.62884199999999	26.633
 389	1	2	0.024500039549602497	-57.772141999999995	57.985341999999996	28.2405
 390	1	2	0.024500039549602497	-59.022541999999994	58.17674199999999	26.999
 391	1	3	-0.02234505887654117	-54.728742	57.73374199999999	28.1087
 392	1	1	0.31353367684787536	-54.884541999999996	56.47304199999999	26.9703
 393	1	3	-0.02234505887654117	-54.569542	57.069641999999995	25.4021
 394	1	4	-0.4158437963924082	-53.604642	55.580541999999994	27.3354
 395	1	2	0.024500039549602497	-55.061941999999995	57.382341999999994	29.0853
 396	1	2	0.024500039549602497	-55.310041999999996	58.603742	27.8165
 397	1	2	0.024500039549602497	-53.682241999999995	58.03364199999999	28.1805
 398	1	2	0.024500039549602497	-54.75764199999999	56.290842	24.6638
 399	1	2	0.024500039549602497	-53.52594199999999	57.376341999999994	25.3299
 400	1	2	0.024500039549602497	-55.19514199999999	57.935542	25.1933
 401	1	3	-0.02234505887654117	-54.394741999999994	53.37844199999999	25.8156
 402	1	1	0.31353367684787536	-53.581542	53.98664199999999	27.1853
 403	1	3	-0.02234505887654117	-54.19524199999999	53.278442	28.6103
 404	1	4	-0.4158437963924082	-52.07574199999999	53.463342	26.9895
 405	1	2	0.024500039549602497	-55.459641999999995	53.590542	25.8674
 406	1	2	0.024500039549602497	-54.249841999999994	52.299842	25.767
 407	1	2	0.024500039549602497	-53.979242	53.828441999999995	24.9159
 408	1	2	0.024500039549602497	-54.21064199999999	52.19394199999999	28.5093
 409	1	2	0.024500039549602497	-55.200441999999995	53.64044199999999	28.8088
 410	1	2	0.024500039549602497	-53.56594199999999	53.541242	29.4572
 411	1	3	-0.02234505887654117	-50.96704199999999	54.804641999999994	29.1391
 412	1	1	0.31353367684787536	-50.810841999999994	54.31284199999999	27.5112